

-- Copyright (C) 2023 NORCE

SPECGRID
40 1 2 1 F
/

COORD
 0.000000E+00  0.000000E+00 0  0.000000E+00  0.000000E+00  6.000000E+00
 8.024831E-01 -4.633138E-01 0  8.024831E-01 -4.633138E-01  6.000000E+00
 1.646110E+00 -9.503823E-01 0  1.646110E+00 -9.503823E-01  6.000000E+00
 2.532991E+00 -1.462423E+00 0  2.532991E+00 -1.462423E+00  6.000000E+00
 3.465344E+00 -2.000717E+00 0  3.465344E+00 -2.000717E+00  6.000000E+00
 4.445499E+00 -2.566610E+00 0  4.445499E+00 -2.566610E+00  6.000000E+00
 5.475908E+00 -3.161517E+00 0  5.475908E+00 -3.161517E+00  6.000000E+00
 6.559146E+00 -3.786925E+00 0  6.559146E+00 -3.786925E+00  6.000000E+00
 7.697924E+00 -4.444399E+00 0  7.697924E+00 -4.444399E+00  6.000000E+00
 8.895088E+00 -5.135582E+00 0  8.895088E+00 -5.135582E+00  6.000000E+00
 1.015363E+01 -5.862202E+00 0  1.015363E+01 -5.862202E+00  6.000000E+00
 1.147670E+01 -6.626078E+00 0  1.147670E+01 -6.626078E+00  6.000000E+00
 1.286761E+01 -7.429118E+00 0  1.286761E+01 -7.429118E+00  6.000000E+00
 1.432983E+01 -8.273331E+00 0  1.432983E+01 -8.273331E+00  6.000000E+00
 1.586702E+01 -9.160827E+00 0  1.586702E+01 -9.160827E+00  6.000000E+00
 1.748302E+01 -1.009383E+01 0  1.748302E+01 -1.009383E+01  6.000000E+00
 1.918188E+01 -1.107466E+01 0  1.918188E+01 -1.107466E+01  6.000000E+00
 2.096784E+01 -1.210579E+01 0  2.096784E+01 -1.210579E+01  6.000000E+00
 2.284536E+01 -1.318978E+01 0  2.284536E+01 -1.318978E+01  6.000000E+00
 2.481915E+01 -1.432935E+01 0  2.481915E+01 -1.432935E+01  6.000000E+00
 2.689414E+01 -1.552734E+01 0  2.689414E+01 -1.552734E+01  6.000000E+00
 2.907552E+01 -1.678676E+01 0  2.907552E+01 -1.678676E+01  6.000000E+00
 3.136873E+01 -1.811075E+01 0  3.136873E+01 -1.811075E+01  6.000000E+00
 3.377953E+01 -1.950262E+01 0  3.377953E+01 -1.950262E+01  6.000000E+00
 3.631392E+01 -2.096585E+01 0  3.631392E+01 -2.096585E+01  6.000000E+00
 3.897826E+01 -2.250411E+01 0  3.897826E+01 -2.250411E+01  6.000000E+00
 4.177920E+01 -2.412123E+01 0  4.177920E+01 -2.412123E+01  6.000000E+00
 4.472375E+01 -2.582127E+01 0  4.472375E+01 -2.582127E+01  6.000000E+00
 4.781927E+01 -2.760847E+01 0  4.781927E+01 -2.760847E+01  6.000000E+00
 5.107350E+01 -2.948730E+01 0  5.107350E+01 -2.948730E+01  6.000000E+00
 5.449458E+01 -3.146246E+01 0  5.449458E+01 -3.146246E+01  6.000000E+00
 5.809106E+01 -3.353889E+01 0  5.809106E+01 -3.353889E+01  6.000000E+00
 6.187193E+01 -3.572178E+01 0  6.187193E+01 -3.572178E+01  6.000000E+00
 6.584666E+01 -3.801658E+01 0  6.584666E+01 -3.801658E+01  6.000000E+00
 7.002517E+01 -4.042905E+01 0  7.002517E+01 -4.042905E+01  6.000000E+00
 7.441792E+01 -4.296521E+01 0  7.441792E+01 -4.296521E+01  6.000000E+00
 7.903589E+01 -4.563139E+01 0  7.903589E+01 -4.563139E+01  6.000000E+00
 8.389063E+01 -4.843428E+01 0  8.389063E+01 -4.843428E+01  6.000000E+00
 8.899428E+01 -5.138087E+01 0  8.899428E+01 -5.138087E+01  6.000000E+00
 9.435960E+01 -5.447854E+01 0  9.435960E+01 -5.447854E+01  6.000000E+00
 1.000000E+02 -5.773503E+01 0  1.000000E+02 -5.773503E+01  6.000000E+00
 0.000000E+00  0.000000E+00 0  0.000000E+00  0.000000E+00  6.000000E+00
 8.024831E-01  4.633138E-01 0  8.024831E-01  4.633138E-01  6.000000E+00
 1.646110E+00  9.503823E-01 0  1.646110E+00  9.503823E-01  6.000000E+00
 2.532991E+00  1.462423E+00 0  2.532991E+00  1.462423E+00  6.000000E+00
 3.465344E+00  2.000717E+00 0  3.465344E+00  2.000717E+00  6.000000E+00
 4.445499E+00  2.566610E+00 0  4.445499E+00  2.566610E+00  6.000000E+00
 5.475908E+00  3.161517E+00 0  5.475908E+00  3.161517E+00  6.000000E+00
 6.559146E+00  3.786925E+00 0  6.559146E+00  3.786925E+00  6.000000E+00
 7.697924E+00  4.444399E+00 0  7.697924E+00  4.444399E+00  6.000000E+00
 8.895088E+00  5.135582E+00 0  8.895088E+00  5.135582E+00  6.000000E+00
 1.015363E+01  5.862202E+00 0  1.015363E+01  5.862202E+00  6.000000E+00
 1.147670E+01  6.626078E+00 0  1.147670E+01  6.626078E+00  6.000000E+00
 1.286761E+01  7.429118E+00 0  1.286761E+01  7.429118E+00  6.000000E+00
 1.432983E+01  8.273331E+00 0  1.432983E+01  8.273331E+00  6.000000E+00
 1.586702E+01  9.160827E+00 0  1.586702E+01  9.160827E+00  6.000000E+00
 1.748302E+01  1.009383E+01 0  1.748302E+01  1.009383E+01  6.000000E+00
 1.918188E+01  1.107466E+01 0  1.918188E+01  1.107466E+01  6.000000E+00
 2.096784E+01  1.210579E+01 0  2.096784E+01  1.210579E+01  6.000000E+00
 2.284536E+01  1.318978E+01 0  2.284536E+01  1.318978E+01  6.000000E+00
 2.481915E+01  1.432935E+01 0  2.481915E+01  1.432935E+01  6.000000E+00
 2.689414E+01  1.552734E+01 0  2.689414E+01  1.552734E+01  6.000000E+00
 2.907552E+01  1.678676E+01 0  2.907552E+01  1.678676E+01  6.000000E+00
 3.136873E+01  1.811075E+01 0  3.136873E+01  1.811075E+01  6.000000E+00
 3.377953E+01  1.950262E+01 0  3.377953E+01  1.950262E+01  6.000000E+00
 3.631392E+01  2.096585E+01 0  3.631392E+01  2.096585E+01  6.000000E+00
 3.897826E+01  2.250411E+01 0  3.897826E+01  2.250411E+01  6.000000E+00
 4.177920E+01  2.412123E+01 0  4.177920E+01  2.412123E+01  6.000000E+00
 4.472375E+01  2.582127E+01 0  4.472375E+01  2.582127E+01  6.000000E+00
 4.781927E+01  2.760847E+01 0  4.781927E+01  2.760847E+01  6.000000E+00
 5.107350E+01  2.948730E+01 0  5.107350E+01  2.948730E+01  6.000000E+00
 5.449458E+01  3.146246E+01 0  5.449458E+01  3.146246E+01  6.000000E+00
 5.809106E+01  3.353889E+01 0  5.809106E+01  3.353889E+01  6.000000E+00
 6.187193E+01  3.572178E+01 0  6.187193E+01  3.572178E+01  6.000000E+00
 6.584666E+01  3.801658E+01 0  6.584666E+01  3.801658E+01  6.000000E+00
 7.002517E+01  4.042905E+01 0  7.002517E+01  4.042905E+01  6.000000E+00
 7.441792E+01  4.296521E+01 0  7.441792E+01  4.296521E+01  6.000000E+00
 7.903589E+01  4.563139E+01 0  7.903589E+01  4.563139E+01  6.000000E+00
 8.389063E+01  4.843428E+01 0  8.389063E+01  4.843428E+01  6.000000E+00
 8.899428E+01  5.138087E+01 0  8.899428E+01  5.138087E+01  6.000000E+00
 9.435960E+01  5.447854E+01 0  9.435960E+01  5.447854E+01  6.000000E+00
 1.000000E+02  5.773503E+01 0  1.000000E+02  5.773503E+01  6.000000E+00
/

ZCORN
  0.000000E+00  0.000000E+00
  0.000000E+00  0.000000E+00
  0.000000E+00  0.000000E+00
  0.000000E+00  0.000000E+00
  0.000000E+00  0.000000E+00
  0.000000E+00  0.000000E+00
  0.000000E+00  0.000000E+00
  0.000000E+00  0.000000E+00
  0.000000E+00  0.000000E+00
  0.000000E+00  0.000000E+00
  0.000000E+00  0.000000E+00
  0.000000E+00  0.000000E+00
  0.000000E+00  0.000000E+00
  0.000000E+00  0.000000E+00
  0.000000E+00  0.000000E+00
  0.000000E+00  0.000000E+00
  0.000000E+00  0.000000E+00
  0.000000E+00  0.000000E+00
  0.000000E+00  0.000000E+00
  0.000000E+00  0.000000E+00
  0.000000E+00  0.000000E+00
  0.000000E+00  0.000000E+00
  0.000000E+00  0.000000E+00
  0.000000E+00  0.000000E+00
  0.000000E+00  0.000000E+00
  0.000000E+00  0.000000E+00
  0.000000E+00  0.000000E+00
  0.000000E+00  0.000000E+00
  0.000000E+00  0.000000E+00
  0.000000E+00  0.000000E+00
  0.000000E+00  0.000000E+00
  0.000000E+00  0.000000E+00
  0.000000E+00  0.000000E+00
  0.000000E+00  0.000000E+00
  0.000000E+00  0.000000E+00
  0.000000E+00  0.000000E+00
  0.000000E+00  0.000000E+00
  0.000000E+00  0.000000E+00
  0.000000E+00  0.000000E+00
  0.000000E+00  0.000000E+00
  0.000000E+00  0.000000E+00
  0.000000E+00  0.000000E+00
  0.000000E+00  0.000000E+00
  0.000000E+00  0.000000E+00
  0.000000E+00  0.000000E+00
  0.000000E+00  0.000000E+00
  0.000000E+00  0.000000E+00
  0.000000E+00  0.000000E+00
  0.000000E+00  0.000000E+00
  0.000000E+00  0.000000E+00
  0.000000E+00  0.000000E+00
  0.000000E+00  0.000000E+00
  0.000000E+00  0.000000E+00
  0.000000E+00  0.000000E+00
  0.000000E+00  0.000000E+00
  0.000000E+00  0.000000E+00
  0.000000E+00  0.000000E+00
  0.000000E+00  0.000000E+00
  0.000000E+00  0.000000E+00
  0.000000E+00  0.000000E+00
  0.000000E+00  0.000000E+00
  0.000000E+00  0.000000E+00
  0.000000E+00  0.000000E+00
  0.000000E+00  0.000000E+00
  0.000000E+00  0.000000E+00
  0.000000E+00  0.000000E+00
  0.000000E+00  0.000000E+00
  0.000000E+00  0.000000E+00
  0.000000E+00  0.000000E+00
  0.000000E+00  0.000000E+00
  0.000000E+00  0.000000E+00
  0.000000E+00  0.000000E+00
  0.000000E+00  0.000000E+00
  0.000000E+00  0.000000E+00
  0.000000E+00  0.000000E+00
  0.000000E+00  0.000000E+00
  0.000000E+00  0.000000E+00
  0.000000E+00  0.000000E+00
  0.000000E+00  0.000000E+00
  0.000000E+00  0.000000E+00
  3.000000E+00  3.000000E+00
  3.000000E+00  3.000000E+00
  3.000000E+00  3.000000E+00
  3.000000E+00  3.000000E+00
  3.000000E+00  3.000000E+00
  3.000000E+00  3.000000E+00
  3.000000E+00  3.000000E+00
  3.000000E+00  3.000000E+00
  3.000000E+00  3.000000E+00
  3.000000E+00  3.000000E+00
  3.000000E+00  3.000000E+00
  3.000000E+00  3.000000E+00
  3.000000E+00  3.000000E+00
  3.000000E+00  3.000000E+00
  3.000000E+00  3.000000E+00
  3.000000E+00  3.000000E+00
  3.000000E+00  3.000000E+00
  3.000000E+00  3.000000E+00
  3.000000E+00  3.000000E+00
  3.000000E+00  3.000000E+00
  3.000000E+00  3.000000E+00
  3.000000E+00  3.000000E+00
  3.000000E+00  3.000000E+00
  3.000000E+00  3.000000E+00
  3.000000E+00  3.000000E+00
  3.000000E+00  3.000000E+00
  3.000000E+00  3.000000E+00
  3.000000E+00  3.000000E+00
  3.000000E+00  3.000000E+00
  3.000000E+00  3.000000E+00
  3.000000E+00  3.000000E+00
  3.000000E+00  3.000000E+00
  3.000000E+00  3.000000E+00
  3.000000E+00  3.000000E+00
  3.000000E+00  3.000000E+00
  3.000000E+00  3.000000E+00
  3.000000E+00  3.000000E+00
  3.000000E+00  3.000000E+00
  3.000000E+00  3.000000E+00
  3.000000E+00  3.000000E+00
  3.000000E+00  3.000000E+00
  3.000000E+00  3.000000E+00
  3.000000E+00  3.000000E+00
  3.000000E+00  3.000000E+00
  3.000000E+00  3.000000E+00
  3.000000E+00  3.000000E+00
  3.000000E+00  3.000000E+00
  3.000000E+00  3.000000E+00
  3.000000E+00  3.000000E+00
  3.000000E+00  3.000000E+00
  3.000000E+00  3.000000E+00
  3.000000E+00  3.000000E+00
  3.000000E+00  3.000000E+00
  3.000000E+00  3.000000E+00
  3.000000E+00  3.000000E+00
  3.000000E+00  3.000000E+00
  3.000000E+00  3.000000E+00
  3.000000E+00  3.000000E+00
  3.000000E+00  3.000000E+00
  3.000000E+00  3.000000E+00
  3.000000E+00  3.000000E+00
  3.000000E+00  3.000000E+00
  3.000000E+00  3.000000E+00
  3.000000E+00  3.000000E+00
  3.000000E+00  3.000000E+00
  3.000000E+00  3.000000E+00
  3.000000E+00  3.000000E+00
  3.000000E+00  3.000000E+00
  3.000000E+00  3.000000E+00
  3.000000E+00  3.000000E+00
  3.000000E+00  3.000000E+00
  3.000000E+00  3.000000E+00
  3.000000E+00  3.000000E+00
  3.000000E+00  3.000000E+00
  3.000000E+00  3.000000E+00
  3.000000E+00  3.000000E+00
  3.000000E+00  3.000000E+00
  3.000000E+00  3.000000E+00
  3.000000E+00  3.000000E+00
  3.000000E+00  3.000000E+00
  3.000000E+00  3.000000E+00
  3.000000E+00  3.000000E+00
  3.000000E+00  3.000000E+00
  3.000000E+00  3.000000E+00
  3.000000E+00  3.000000E+00
  3.000000E+00  3.000000E+00
  3.000000E+00  3.000000E+00
  3.000000E+00  3.000000E+00
  3.000000E+00  3.000000E+00
  3.000000E+00  3.000000E+00
  3.000000E+00  3.000000E+00
  3.000000E+00  3.000000E+00
  3.000000E+00  3.000000E+00
  3.000000E+00  3.000000E+00
  3.000000E+00  3.000000E+00
  3.000000E+00  3.000000E+00
  3.000000E+00  3.000000E+00
  3.000000E+00  3.000000E+00
  3.000000E+00  3.000000E+00
  3.000000E+00  3.000000E+00
  3.000000E+00  3.000000E+00
  3.000000E+00  3.000000E+00
  3.000000E+00  3.000000E+00
  3.000000E+00  3.000000E+00
  3.000000E+00  3.000000E+00
  3.000000E+00  3.000000E+00
  3.000000E+00  3.000000E+00
  3.000000E+00  3.000000E+00
  3.000000E+00  3.000000E+00
  3.000000E+00  3.000000E+00
  3.000000E+00  3.000000E+00
  3.000000E+00  3.000000E+00
  3.000000E+00  3.000000E+00
  3.000000E+00  3.000000E+00
  3.000000E+00  3.000000E+00
  3.000000E+00  3.000000E+00
  3.000000E+00  3.000000E+00
  3.000000E+00  3.000000E+00
  3.000000E+00  3.000000E+00
  3.000000E+00  3.000000E+00
  3.000000E+00  3.000000E+00
  3.000000E+00  3.000000E+00
  3.000000E+00  3.000000E+00
  3.000000E+00  3.000000E+00
  3.000000E+00  3.000000E+00
  3.000000E+00  3.000000E+00
  3.000000E+00  3.000000E+00
  3.000000E+00  3.000000E+00
  3.000000E+00  3.000000E+00
  3.000000E+00  3.000000E+00
  3.000000E+00  3.000000E+00
  3.000000E+00  3.000000E+00
  3.000000E+00  3.000000E+00
  3.000000E+00  3.000000E+00
  3.000000E+00  3.000000E+00
  3.000000E+00  3.000000E+00
  3.000000E+00  3.000000E+00
  3.000000E+00  3.000000E+00
  3.000000E+00  3.000000E+00
  3.000000E+00  3.000000E+00
  3.000000E+00  3.000000E+00
  3.000000E+00  3.000000E+00
  3.000000E+00  3.000000E+00
  3.000000E+00  3.000000E+00
  3.000000E+00  3.000000E+00
  3.000000E+00  3.000000E+00
  3.000000E+00  3.000000E+00
  3.000000E+00  3.000000E+00
  3.000000E+00  3.000000E+00
  3.000000E+00  3.000000E+00
  3.000000E+00  3.000000E+00
  3.000000E+00  3.000000E+00
  3.000000E+00  3.000000E+00
  3.000000E+00  3.000000E+00
  3.000000E+00  3.000000E+00
  3.000000E+00  3.000000E+00
  3.000000E+00  3.000000E+00
  3.000000E+00  3.000000E+00
  3.000000E+00  3.000000E+00
  3.000000E+00  3.000000E+00
  6.000000E+00  6.000000E+00
  6.000000E+00  6.000000E+00
  6.000000E+00  6.000000E+00
  6.000000E+00  6.000000E+00
  6.000000E+00  6.000000E+00
  6.000000E+00  6.000000E+00
  6.000000E+00  6.000000E+00
  6.000000E+00  6.000000E+00
  6.000000E+00  6.000000E+00
  6.000000E+00  6.000000E+00
  6.000000E+00  6.000000E+00
  6.000000E+00  6.000000E+00
  6.000000E+00  6.000000E+00
  6.000000E+00  6.000000E+00
  6.000000E+00  6.000000E+00
  6.000000E+00  6.000000E+00
  6.000000E+00  6.000000E+00
  6.000000E+00  6.000000E+00
  6.000000E+00  6.000000E+00
  6.000000E+00  6.000000E+00
  6.000000E+00  6.000000E+00
  6.000000E+00  6.000000E+00
  6.000000E+00  6.000000E+00
  6.000000E+00  6.000000E+00
  6.000000E+00  6.000000E+00
  6.000000E+00  6.000000E+00
  6.000000E+00  6.000000E+00
  6.000000E+00  6.000000E+00
  6.000000E+00  6.000000E+00
  6.000000E+00  6.000000E+00
  6.000000E+00  6.000000E+00
  6.000000E+00  6.000000E+00
  6.000000E+00  6.000000E+00
  6.000000E+00  6.000000E+00
  6.000000E+00  6.000000E+00
  6.000000E+00  6.000000E+00
  6.000000E+00  6.000000E+00
  6.000000E+00  6.000000E+00
  6.000000E+00  6.000000E+00
  6.000000E+00  6.000000E+00
  6.000000E+00  6.000000E+00
  6.000000E+00  6.000000E+00
  6.000000E+00  6.000000E+00
  6.000000E+00  6.000000E+00
  6.000000E+00  6.000000E+00
  6.000000E+00  6.000000E+00
  6.000000E+00  6.000000E+00
  6.000000E+00  6.000000E+00
  6.000000E+00  6.000000E+00
  6.000000E+00  6.000000E+00
  6.000000E+00  6.000000E+00
  6.000000E+00  6.000000E+00
  6.000000E+00  6.000000E+00
  6.000000E+00  6.000000E+00
  6.000000E+00  6.000000E+00
  6.000000E+00  6.000000E+00
  6.000000E+00  6.000000E+00
  6.000000E+00  6.000000E+00
  6.000000E+00  6.000000E+00
  6.000000E+00  6.000000E+00
  6.000000E+00  6.000000E+00
  6.000000E+00  6.000000E+00
  6.000000E+00  6.000000E+00
  6.000000E+00  6.000000E+00
  6.000000E+00  6.000000E+00
  6.000000E+00  6.000000E+00
  6.000000E+00  6.000000E+00
  6.000000E+00  6.000000E+00
  6.000000E+00  6.000000E+00
  6.000000E+00  6.000000E+00
  6.000000E+00  6.000000E+00
  6.000000E+00  6.000000E+00
  6.000000E+00  6.000000E+00
  6.000000E+00  6.000000E+00
  6.000000E+00  6.000000E+00
  6.000000E+00  6.000000E+00
  6.000000E+00  6.000000E+00
  6.000000E+00  6.000000E+00
  6.000000E+00  6.000000E+00
  6.000000E+00  6.000000E+00
/